1034	0	*	1
758	1	*	1
1214	2	*	1
1429	3	*	1
626	4	*	1
509	4	0.0/4296:499aa/64.34%	1
269	3	0.0/570:828:243:202:93:153aa/22.78%	1
1050	5	*	1
483	6	*	1
1385	7	*	1
1411	8	*	1
643	9	*	1
394	10	*	1
1144	11	*	1
395	12	*	1
45	8	0.0/3522:475aa/27.11%	1
1112	13	*	1
408	14	*	1
681	15	*	1
305	11	0.0/1476:682:148:160:85:48aa/36.94%	1
904	16	*	1
1118	17	*	1
155	18	*	1
1226	19	*	1
611	20	*	1
328	21	*	1
356	22	*	1
1394	23	*	1
917	24	*	1
91	25	*	1
1488	26	*	1
295	27	*	1
1263	28	*	1
672	29	*	1
25	30	*	1
22	31	*	1
386	32	*	1
1039	33	*	1
92	34	*	1
1326	35	*	1
1095	36	*	1
274	34	0.0/2641aa/63.73%	1
1174	37	*	1
321	34	0.0/2647aa/62.33%	1
1022	38	*	1
1103	39	*	1
300	40	*	1
29	41	*	1
1142	42	*	1
323	43	*	1
170	44	*	1
168	39	0.0/2271aa/51.71%	1
1183	45	*	1
376	44	0.0/2480aa/56.71%	1
0	45	0.0/895:902:107:150aa/53.02%	1
817	44	1.82e-126/1412aa/16.06%	1
304	46	*	1
513	47	*	1
569	48	*	1
1116	49	*	1
253	47	1.69e-54/617:252:402aa/17.05%	1
445	50	*	1
1281	39	0.0/2141aa/42.69%	1
297	51	*	1
662	52	*	1
1165	53	*	1
510	53	0.0/2280aa/50.68%	1
369	48	3.90e-160/699:730aa/25.4%	1
677	17	2.02e-168/829:931:182aa/27.22%	1
1513	54	*	1
663	47	2.62e-57/644:243:391aa/18.18%	1
464	44	2.82e-136/1412aa/18.43%	1
1434	55	*	1
399	56	*	1
571	57	*	1
72	58	*	1
815	59	*	1
592	60	*	1
256	61	*	1
702	62	*	1
1378	47	1.33e-58/635:227:347aa/17.26%	1
23	63	*	1
871	47	6.19e-62/612:233:352aa/17.96%	1
466	64	*	1
812	47	5.89e-63/612:222:357aa/17.85%	1
593	65	*	1
1447	66	*	1
588	47	1.29e-62/612:222:366aa/18%	1
1143	67	*	1
1477	66	0.0/1313:495aa/61.98%	1
398	68	*	1
953	66	0.0/1185aa/27.28%	1
19	69	*	1
969	0	5.99e-103/811:800aa/22.77%	1
438	25	2.28e-147/712aa/15.89%	1
1224	70	*	1
919	11	0.0/1440aa/46.99%	1
280	47	3.18e-57/654:331aa/16.65%	1
1347	71	*	1
378	66	2.95e-150/735aa/15.68%	1
722	66	2.16e-157/731aa/15.63%	1
352	47	2.96e-57/611:232:373aa/19.55%	1
125	72	*	1
75	73	*	1
634	74	*	1
1308	75	*	1
1320	76	*	1
1080	77	*	1
1232	78	*	1
790	79	*	1
1454	80	*	1
1345	81	*	1
933	82	*	1
1456	83	*	1
608	84	*	1
984	85	*	1
1273	86	*	1
37	83	3.68e-98/224:215:128:99aa/21.83%	1
1151	76	0.0/881:389aa/53.25%	1
362	87	*	1
1133	0	4.29e-63/902:296aa/18.1%	1
1375	88	*	1
151	89	*	1
1480	90	*	1
1475	83	8.20e-91/280:317:333aa/23.65%	1
825	88	0.0/1700aa/28.5%	1
1087	91	*	1
122	92	*	1
95	93	*	1
63	17	1.82e-139/772aa/17.94%	1
811	94	*	1
534	7	0.0/1481aa/28.58%	1
129	95	*	1
674	96	*	1
1000	97	*	1
1097	92	0.0/1283:162aa/70.5%	1
263	98	*	1
416	99	*	1
1397	100	*	1
364	101	*	1
163	102	*	1
318	99	0.0/1413aa/30.89%	1
1416	103	*	1
183	104	*	1
252	105	*	1
134	106	*	1
12	99	7.21e-163/1392aa/29.14%	1
115	107	*	1
7	108	*	1
907	109	*	1
1230	110	*	1
927	111	*	1
639	112	*	1
1539	99	3.34e-71/500:226aa/16.01%	1
1424	113	*	1
1298	88	1.43e-57/1275aa/19.74%	1
1531	114	*	1
1376	111	1.77e-105/240:65:134aa/20.73%	1
1422	115	*	1
68	112	0.0/1518aa/54.64%	1
799	116	*	1
1085	117	*	1
1464	118	*	1
913	119	*	1
1497	120	*	1
227	121	*	1
899	122	*	1
865	123	*	1
725	39	1.12e-79/458:197aa/17.78%	1
822	124	*	1
1506	125	*	1
306	126	*	1
451	82	4.76e-123/926:118aa/24.67%	1
885	127	*	1
1364	128	*	1
922	128	0.0/1371aa/57.27%	1
1249	111	3.80e-103/249:107:207:58aa/29.5%	1
819	129	*	1
1252	130	*	1
303	131	*	1
245	129	0.0/1302aa/43.21%	1
982	89	1.15e-97/377:204aa/16.75%	1
818	132	*	1
910	133	*	1
1011	134	*	1
347	135	*	1
1334	136	*	1
793	137	*	1
866	136	0.0/1187:38aa/66.44%	1
314	138	*	1
1236	139	*	1
1052	140	*	1
814	141	*	1
164	142	*	1
1110	143	*	1
1400	128	8.60e-44/342:483aa/19.95%	1
525	144	*	1
275	145	*	1
83	146	*	1
1111	147	*	1
230	148	*	1
478	149	*	1
596	150	*	1
237	142	6.07e-144/990:171aa/31.25%	1
1029	141	0.0/1300aa/50.31%	1
291	39	6.21e-80/392:152aa/16.57%	1
182	151	*	1
473	141	0.0/1275aa/51.25%	1
400	131	0.0/1289aa/39.51%	1
1126	152	*	1
334	153	*	1
1136	0	5.64e-61/692aa/15.69%	1
760	154	*	1
279	155	*	1
883	156	*	1
267	157	*	1
1257	158	*	1
849	159	*	1
803	160	*	1
1290	161	*	1
149	162	*	1
718	46	0.0/360:74aa/25.66%	1
841	0	2.22e-23/952aa/17.16%	1
130	163	*	1
453	164	*	1
582	165	*	1
244	166	*	1
243	167	*	1
1004	39	2.57e-122/667aa/20.85%	1
1145	168	*	1
1432	169	*	1
1532	170	*	1
385	128	2.44e-41/265:513aa/19.66%	1
876	7	4.77e-60/431:329aa/18.47%	1
97	171	*	1
1395	172	*	1
878	173	*	1
731	174	*	1
254	175	*	1
1202	176	*	1
468	177	*	1
1515	178	*	1
921	179	*	1
1473	180	*	1
1505	181	*	1
693	182	*	1
1169	183	*	1
810	184	*	1
945	185	*	1
1094	186	*	1
1086	187	*	1
1388	188	*	1
784	189	*	1
890	190	*	1
343	191	*	1
640	192	*	1
482	193	*	1
985	176	0.0/1194aa/39.75%	1
1032	194	*	1
218	176	0.0/1199aa/41.19%	1
420	195	*	1
1002	170	0.0/1138aa/44.66%	1
1547	196	*	1
1383	197	*	1
1297	198	*	1
1119	199	*	1
887	200	*	1
1492	201	*	1
820	202	*	1
894	129	1.64e-90/389:559aa/27.93%	1
1089	76	0.0/707aa/45.24%	1
893	203	*	1
999	204	*	1
511	129	2.16e-104/392:455aa/26.99%	1
529	205	*	1
787	206	*	1
1117	207	*	1
776	208	*	1
448	209	*	1
1180	114	1.69e-135/746aa/28.74%	1
518	210	*	1
178	211	*	1
645	212	*	1
911	213	*	1
28	214	*	1
389	215	*	1
383	208	0.0/1061aa/40.8%	1
1545	216	*	1
554	217	*	1
342	218	*	1
698	219	*	1
271	114	1.42e-130/699aa/26.83%	1
345	211	2.52e-62/360aa/15.11%	1
515	217	4.83e-63/865aa/23.25%	1
754	220	*	1
947	221	*	1
1288	222	*	1
918	223	*	1
31	224	*	1
538	225	*	1
1206	226	*	1
351	227	*	1
1467	2	0.0/1092aa/41.42%	1
504	16	1.25e-91/744aa/21.91%	1
763	228	*	1
987	229	*	1
1025	230	*	1
555	128	5.40e-64/539aa/17.01%	1
1246	231	*	1
712	129	7.20e-98/404aa/18.02%	1
1026	232	*	1
1439	233	*	1
288	185	4.57e-141/548:126aa/29.42%	1
1248	234	*	1
565	235	*	1
703	16	5.49e-89/686aa/21.19%	1
646	236	*	1
1450	237	*	1
108	114	1.07e-82/739aa/24.89%	1
517	212	0.0/970aa/48.36%	1
627	129	6.95e-103/509aa/20.49%	1
165	238	*	1
605	129	2.57e-98/357aa/18.2%	1
935	239	*	1
829	236	0.0/967aa/45.24%	1
1067	240	*	1
914	241	*	1
624	7	1.50e-132/710aa/27.51%	1
845	242	*	1
657	243	*	1
36	244	*	1
251	245	*	1
1355	246	*	1
578	247	*	1
768	248	*	1
1217	249	*	1
272	250	*	1
1392	251	*	1
1337	74	0.0/902aa/39.7%	1
485	252	*	1
455	253	*	1
48	254	*	1
958	255	*	1
931	112	1.64e-89/868aa/26.22%	1
89	130	6.95e-51/347:247aa/19.05%	1
851	256	*	1
422	257	*	1
670	258	*	1
419	259	*	1
857	260	*	1
619	222	1.25e-101/722aa/27.13%	1
956	261	*	1
1041	262	*	1
143	263	*	1
745	83	2.61e-16/369aa/15.3%	1
148	264	*	1
360	265	*	1
843	266	*	1
891	267	*	1
210	268	*	1
1141	269	*	1
449	270	*	1
506	44	4.93e-74/501aa/18.44%	1
1065	207	5.12e-179/925aa/36.44%	1
1371	271	*	1
1336	112	5.31e-51/480aa/15.19%	1
1319	272	*	1
823	237	0.0/505:41aa/42.27%	1
1314	191	1.09e-17/170:305:207aa/21.3%	1
307	273	*	1
1038	274	*	1
118	275	*	1
1352	199	1.82e-84/810aa/25.97%	1
671	276	*	1
675	277	*	1
283	278	*	1
1425	279	*	1
977	280	*	1
530	44	5.25e-72/499aa/18.68%	1
273	281	*	1
1499	44	1.68e-76/501aa/18.6%	1
1420	172	0.0/553aa/53.03%	1
325	282	*	1
339	283	*	1
1457	199	9.01e-75/597aa/23.12%	1
896	284	*	1
1235	285	*	1
1414	286	*	1
711	7	7.62e-138/752aa/32.64%	1
20	287	*	1
1487	287	0.0/912aa/47.47%	1
224	288	*	1
1261	289	*	1
228	290	*	1
1122	291	*	1
32	292	*	1
713	293	*	1
1398	294	*	1
1073	295	*	1
102	290	0.0/784aa/74.76%	1
708	273	1.45e-105/603aa/24.44%	1
1310	296	*	1
609	297	*	1
407	7	2.97e-125/741aa/30.69%	1
1194	239	0.0/873aa/39.74%	1
1362	298	*	1
172	299	*	1
1178	300	*	1
112	270	0.0/440:151aa/44.9%	1
119	301	*	1
1149	302	*	1
972	303	*	1
100	302	0.0/841aa/79.92%	1
1353	304	*	1
932	273	1.44e-89/754aa/27.5%	1
523	274	8.50e-20/487:128aa/19.54%	1
742	305	*	1
1113	204	4.53e-21/586aa/15.78%	1
354	306	*	1
1519	307	*	1
1048	199	1.58e-61/592aa/23.28%	1
1160	308	*	1
1458	309	*	1
659	310	*	1
863	311	*	1
655	201	1.10e-100/396aa/21.89%	1
361	312	*	1
1102	201	4.51e-100/351aa/21.07%	1
973	313	*	1
332	314	*	1
474	234	2.32e-53/533aa/20.34%	1
757	315	*	1
1014	316	*	1
1031	317	*	1
512	318	*	1
772	319	*	1
175	320	*	1
1529	201	1.04e-99/321aa/20.71%	1
226	234	8.55e-33/555aa/19.13%	1
638	321	*	1
240	201	2.68e-95/340aa/22.06%	1
262	322	*	1
265	323	*	1
496	324	*	1
809	299	1.02e-73/303aa/16.83%	1
1179	325	*	1
916	326	*	1
1161	323	4.35e-172/616aa/36.72%	1
54	288	2.67e-171/637aa/36.96%	1
76	327	*	1
94	75	2.09e-114/709aa/31.21%	1
1507	75	1.13e-114/736aa/33.12%	1
261	328	*	1
962	329	*	1
858	325	0.0/777aa/68.57%	1
714	330	*	1
889	325	3.58e-99/795aa/31.37%	1
1221	331	*	1
951	332	*	1
1185	333	*	1
186	334	*	1
730	335	*	1
661	336	*	1
741	337	*	1
3	239	2.17e-12/448:135aa/18.22%	1
1193	127	2.13e-23/492aa/16.83%	1
601	338	*	1
1418	264	2.88e-125/365aa/24.32%	1
62	286	0.0/805aa/62.32%	1
997	339	*	1
942	321	0.0/773aa/54.72%	1
623	340	*	1
739	341	*	1
1301	328	1.66e-94/754aa/30.25%	1
564	269	1.64e-163/749aa/37.36%	1
1006	342	*	1
524	343	*	1
1408	344	*	1
1093	345	*	1
1449	346	*	1
472	347	*	1
193	348	*	1
732	349	*	1
145	350	*	1
926	351	*	1
553	352	*	1
1495	353	*	1
967	354	*	1
1279	355	*	1
1430	356	*	1
1056	345	2.37e-172/757aa/39.89%	1
1057	357	*	1
719	239	2.52e-12/142:381aa/17.97%	1
388	328	6.30e-84/749aa/30.66%	1
797	358	*	1
270	359	*	1
1188	360	*	1
197	141	4.17e-59/479aa/20.45%	1
315	361	*	1
1233	321	1.07e-59/646aa/25.53%	1
1114	362	*	1
1255	284	7.03e-90/547aa/26.5%	1
861	363	*	1
503	364	*	1
796	335	0.0/737aa/68.32%	1
1197	365	*	1
159	366	*	1
1359	367	*	1
440	306	9.56e-15/530aa/17.81%	1
1305	285	9.32e-35/157:138aa/16.21%	1
697	368	*	1
1474	369	*	1
59	370	*	1
212	371	*	1
296	290	4.14e-151/508:90aa/37.77%	1
925	372	*	1
1423	373	*	1
1124	374	*	1
1241	375	*	1
465	180	1.31e-111/460:76aa/32.55%	1
480	376	*	1
600	319	4.42e-140/634aa/34.06%	1
966	377	*	1
74	378	*	1
1208	379	*	1
1312	380	*	1
767	180	2.90e-111/541aa/29.93%	1
864	376	0.0/405:267aa/57.18%	1
475	381	*	1
1501	382	*	1
490	383	*	1
498	384	*	1
556	385	*	1
1234	386	*	1
1061	387	*	1
214	388	*	1
1199	389	*	1
983	390	*	1
319	391	*	1
1189	392	*	1
377	89	4.50e-46/380aa/17.28%	1
873	393	*	1
537	394	*	1
1247	395	*	1
1096	396	*	1
625	355	1.71e-29/626aa/21.45%	1
1047	397	*	1
1130	398	*	1
5	399	*	1
412	400	*	1
1284	401	*	1
1528	402	*	1
69	403	*	1
126	287	0.0/649aa/51.94%	1
359	161	1.17e-85/458aa/23.63%	1
892	404	*	1
454	405	*	1
1007	406	*	1
30	407	*	1
436	83	4.14e-15/295aa/15.23%	1
266	300	1.75e-27/549aa/20.34%	1
1027	234	5.30e-139/573aa/36.82%	1
188	408	*	1
1134	141	2.93e-63/574aa/25.8%	1
1374	300	3.32e-38/695aa/25.51%	1
391	409	*	1
425	39	2.36e-53/301aa/18.1%	1
574	410	*	1
1139	411	*	1
540	412	*	1
980	413	*	1
1044	402	2.64e-113/341:136aa/37.77%	1
1104	414	*	1
442	415	*	1
950	416	*	1
1303	417	*	1
289	418	*	1
1253	419	*	1
1409	384	4.11e-180/461:108aa/52.43%	1
457	420	*	1
1316	287	1.51e-96/295:152aa/31.65%	1
729	419	0.0/661aa/76.59%	1
1270	393	1.82e-34/169:122aa/15.45%	1
1363	421	*	1
1478	422	*	1
104	423	*	1
949	424	*	1
622	425	*	1
666	373	0.0/695aa/76.01%	1
1349	414	0.0/667aa/62.06%	1
1250	426	*	1
499	35	1.84e-55/317aa/18.04%	1
567	427	*	1
755	428	*	1
200	429	*	1
344	430	*	1
1200	431	*	1
568	432	*	1
874	433	*	1
1106	434	*	1
1521	391	2.29e-170/431:203aa/47.42%	1
90	212	2.35e-58/270aa/16.69%	1
152	435	*	1
585	436	*	1
150	437	*	1
264	438	*	1
1010	439	*	1
1306	421	1.45e-69/585aa/25.34%	1
1387	440	*	1
1335	441	*	1
415	442	*	1
761	421	2.86e-78/616aa/27.8%	1
1271	443	*	1
294	444	*	1
375	424	3.54e-119/539aa/29.58%	1
1264	445	*	1
1365	342	0.0/611aa/56.01%	1
406	446	*	1
938	447	*	1
51	448	*	1
246	158	1.30e-36/321aa/15.83%	1
1413	449	*	1
736	450	*	1
978	451	*	1
85	312	1.73e-114/548aa/32.34%	1
1283	424	9.84e-103/530aa/27.34%	1
1484	452	*	1
676	453	*	1
1045	454	*	1
704	455	*	1
516	456	*	1
943	457	*	1
963	458	*	1
903	459	*	1
40	456	8.66e-98/550aa/30.15%	1
1307	439	0.0/660aa/77.3%	1
1508	380	3.98e-46/339aa/17.14%	1
1211	402	5.24e-40/314aa/17.48%	1
936	10	6.26e-10/469aa/16.56%	1
1184	460	*	1
660	461	*	1
258	300	6.17e-48/249aa/15.68%	1
374	462	*	1
1125	463	*	1
621	464	*	1
191	319	1.07e-62/556aa/27%	1
1198	429	3.31e-93/410aa/26.04%	1
1266	465	*	1
1461	455	3.34e-40/356aa/18%	1
249	466	*	1
1239	467	*	1
223	427	2.75e-146/565aa/49.83%	1
771	212	2.24e-59/268aa/16.93%	1
260	429	1.75e-70/403aa/22.94%	1
1448	212	7.22e-59/281aa/18.57%	1
941	468	*	1
204	469	*	1
335	320	6.32e-37/338aa/17.69%	1
1339	470	*	1
835	471	*	1
1225	472	*	1
1502	319	1.73e-50/402aa/21.62%	1
298	33	2.23e-58/550aa/28.17%	1
752	473	*	1
1275	474	*	1
684	475	*	1
120	476	*	1
1390	477	*	1
248	478	*	1
1350	479	*	1
467	364	3.41e-60/560aa/26.23%	1
1476	322	5.83e-44/265aa/15.18%	1
1406	480	*	1
1344	33	3.51e-54/543aa/26.57%	1
526	466	4.86e-22/228:160aa/18.76%	1
1503	481	*	1
1064	0	1.85e-63/303aa/18.28%	1
86	264	5.83e-41/357aa/16.63%	1
1077	482	*	1
141	483	*	1
463	484	*	1
789	485	*	1
1024	486	*	1
384	487	*	1
521	488	*	1
648	336	3.64e-48/264aa/17.03%	1
737	483	0.0/576aa/62.05%	1
1357	489	*	1
1526	490	*	1
527	491	*	1
287	449	0.0/352aa/43.55%	1
1465	492	*	1
234	493	*	1
909	466	2.32e-32/214:207aa/22.99%	1
884	466	1.59e-37/234:212aa/21.84%	1
1442	427	6.78e-153/549aa/52.04%	1
34	303	7.67e-57/568aa/28.08%	1
113	494	*	1
1351	495	*	1
142	496	*	1
196	497	*	1
502	300	1.74e-46/368aa/19.89%	1
783	498	*	1
824	391	4.69e-29/188:208aa/20.44%	1
1444	499	*	1
53	500	*	1
1148	501	*	1
281	502	*	1
1537	503	*	1
777	504	*	1
838	505	*	1
920	506	*	1
56	507	*	1
979	218	9.01e-79/304aa/22.86%	1
1504	508	*	1
157	509	*	1
1203	510	*	1
939	511	*	1
326	218	6.26e-63/302aa/21.51%	1
1205	512	*	1
1328	513	*	1
1490	449	0.0/352aa/46.8%	1
192	514	*	1
1099	402	1.63e-49/286aa/18.47%	1
1191	515	*	1
128	516	*	1
132	493	8.01e-42/364aa/18.32%	1
203	517	*	1
1166	518	*	1
1186	519	*	1
82	297	8.15e-41/411aa/20.71%	1
443	520	*	1
508	303	7.29e-48/518aa/25.22%	1
923	157	2.17e-30/286aa/15.02%	1
705	521	*	1
717	522	*	1
844	523	*	1
965	524	*	1
992	522	0.0/507aa/87.99%	1
1333	525	*	1
500	526	*	1
1486	527	*	1
1522	528	*	1
1542	529	*	1
879	530	*	1
1269	21	6.99e-39/421aa/21.45%	1
1440	531	*	1
327	532	*	1
968	533	*	1
387	534	*	1
837	535	*	1
96	536	*	1
458	537	*	1
573	0	1.36e-31/280aa/16.39%	1
602	538	*	1
15	539	*	1
779	540	*	1
366	541	*	1
1196	494	9.12e-146/435aa/40.66%	1
746	515	3.67e-28/474aa/21.7%	1
313	542	*	1
1176	543	*	1
1381	329	7.09e-46/523aa/24.58%	1
312	544	*	1
396	212	6.29e-66/262aa/22.38%	1
452	545	*	1
908	546	*	1
1482	547	*	1
872	515	3.20e-20/331aa/15.88%	1
1435	548	*	1
1068	549	*	1
50	550	*	1
1267	531	3.90e-14/406aa/18.38%	1
687	551	*	1
828	218	5.65e-53/297aa/20.3%	1
959	552	*	1
1262	539	7.68e-120/479aa/41.72%	1
774	553	*	1
1227	554	*	1
1046	460	0.0/347:62aa/61.81%	1
1341	555	*	1
308	556	*	1
138	557	*	1
816	558	*	1
317	559	*	1
856	560	*	1
669	561	*	1
1419	539	1.02e-145/507aa/52.86%	1
1109	562	*	1
302	392	2.75e-29/293aa/16.09%	1
692	563	*	1
1082	564	*	1
1231	565	*	1
1265	566	*	1
368	567	*	1
484	568	*	1
928	569	*	1
1060	570	*	1
1137	571	*	1
1170	572	*	1
137	573	*	1
217	574	*	1
98	575	*	1
590	576	*	1
1325	577	*	1
410	578	*	1
1324	579	*	1
668	515	2.31e-36/454aa/23.4%	1
868	580	*	1
250	581	*	1
955	479	5.32e-17/364aa/16.73%	1
1292	582	*	1
536	515	1.09e-43/531aa/28.9%	1
658	218	2.31e-70/295:121aa/31.05%	1
699	583	*	1
87	584	*	1
219	585	*	1
1105	586	*	1
1489	587	*	1
70	588	*	1
358	91	1.72e-29/432aa/21.61%	1
1020	589	*	1
1055	212	1.06e-64/306aa/24.55%	1
1309	218	7.85e-56/286aa/21.61%	1
411	590	*	1
531	591	*	1
860	592	*	1
1469	593	*	1
106	594	*	1
205	579	2.04e-29/97:203aa/21.18%	1
667	595	*	1
229	591	1.06e-15/430aa/19.08%	1
432	571	1.15e-110/499aa/38.17%	1
456	571	5.17e-106/481aa/36.77%	1
522	596	*	1
1033	218	1.11e-55/296aa/22.26%	1
1242	218	1.83e-48/287aa/21.47%	1
121	597	*	1
181	218	8.15e-58/296aa/22.9%	1
1229	460	1.96e-119/328:56aa/45.81%	1
1256	566	3.77e-17/374aa/20.91%	1
241	598	*	1
792	446	7.10e-66/229:132aa/32.53%	1
1156	599	*	1
1318	448	1.16e-16/240:105aa/19.56%	1
1421	591	1.70e-64/418aa/24.35%	1
417	600	*	1
780	601	*	1
785	602	*	1
550	601	2.20e-21/374aa/18.43%	1
1090	603	*	1
268	604	*	1
633	591	5.49e-55/431aa/23.74%	1
1384	605	*	1
1280	606	*	1
635	607	*	1
1063	608	*	1
11	609	*	1
1427	610	*	1
309	293	2.04e-56/289aa/22.81%	1
1017	591	2.19e-53/421aa/24.84%	1
1540	611	*	1
548	612	*	1
581	513	2.58e-158/476aa/53.98%	1
751	613	*	1
759	614	*	1
733	300	1.06e-35/240aa/15.98%	1
753	615	*	1
1201	616	*	1
213	515	6.47e-13/327aa/16.08%	1
1405	617	*	1
370	618	*	1
710	619	*	1
993	620	*	1
78	621	*	1
363	622	*	1
1446	391	1.04e-37/204:152aa/25.25%	1
1443	623	*	1
109	624	*	1
1431	402	1.87e-87/349aa/31.18%	1
111	625	*	1
187	402	2.02e-84/317aa/30%	1
348	626	*	1
379	627	*	1
694	628	*	1
1072	486	9.05e-39/354aa/19.58%	1
27	629	*	1
520	402	8.39e-89/326aa/30.89%	1
1019	630	*	1
382	490	3.53e-60/370aa/27.04%	1
1159	631	*	1
1533	632	*	1
587	633	*	1
1240	634	*	1
421	635	*	1
1115	636	*	1
154	637	*	1
700	638	*	1
1075	639	*	1
65	493	7.12e-30/251aa/15.01%	1
1311	604	4.54e-81/470aa/34.03%	1
336	495	2.99e-144/310aa/45.55%	1
401	630	9.62e-88/441aa/31.99%	1
1428	640	*	1
1358	391	3.81e-47/223:164aa/31.21%	1
355	641	*	1
929	642	*	1
162	643	*	1
630	644	*	1
430	645	*	1
1377	638	9.78e-31/399aa/23.5%	1
371	100	1.32e-47/163aa/17.55%	1
995	646	*	1
1321	604	1.95e-60/311aa/23.98%	1
1412	529	6.57e-43/226:215aa/38.54%	1
131	449	1.76e-65/326aa/26.82%	1
842	319	3.49e-38/264aa/19.74%	1
875	647	*	1
446	529	7.33e-76/531aa/40.43%	1
846	648	*	1
1386	649	*	1
1393	650	*	1
225	651	*	1
996	652	*	1
1293	601	1.94e-20/394aa/21.76%	1
1407	653	*	1
6	654	*	1
38	619	1.49e-31/328aa/19.87%	1
58	655	*	1
1182	656	*	1
549	657	*	1
161	319	3.00e-37/311aa/21.9%	1
532	264	1.34e-18/76:199aa/17.78%	1
1190	300	1.50e-47/251aa/20.6%	1
1329	638	2.18e-38/316aa/20.82%	1
1470	658	*	1
541	342	5.89e-32/262aa/17.82%	1
1541	154	3.64e-27/176aa/15.68%	1
397	659	*	1
709	660	*	1
1534	661	*	1
1538	626	3.30e-109/310aa/36.46%	1
1296	604	1.15e-108/301aa/36.76%	1
1043	604	2.53e-55/463aa/28.07%	1
1342	662	*	1
41	663	*	1
570	664	*	1
60	562	4.28e-18/373aa/20.26%	1
1081	665	*	1
561	666	*	1
572	293	1.31e-56/242aa/22.73%	1
1181	667	*	1
180	611	7.56e-177/455aa/54.64%	1
1228	668	*	1
1479	669	*	1
1509	306	6.15e-36/515aa/27.65%	1
66	670	*	1
198	671	*	1
299	672	*	1
847	672	1.61e-68/441aa/30.59%	1
1402	673	*	1
1525	674	*	1
357	672	7.44e-88/439aa/33.33%	1
1079	629	6.11e-62/246aa/26%	1
276	675	*	1
859	676	*	1
189	677	*	1
685	672	6.16e-89/439aa/33.7%	1
1101	678	*	1
337	672	1.75e-88/439aa/33.78%	1
1153	679	*	1
743	39	1.43e-20/315aa/23.02%	1
1391	680	*	1
409	625	3.58e-60/109aa/20.81%	1
576	681	*	1
427	682	*	1
528	683	*	1
616	684	*	1
649	685	*	1
680	686	*	1
1517	687	*	1
782	438	4.80e-41/347aa/25.11%	1
644	688	*	1
380	578	1.29e-64/193aa/22.75%	1
1163	689	*	1
211	690	*	1
833	691	*	1
840	157	3.54e-22/274aa/17.32%	1
961	638	1.70e-48/334aa/24.71%	1
539	655	2.79e-142/385aa/47.68%	1
607	438	4.19e-61/361aa/28.47%	1
1171	449	5.83e-55/322aa/25.23%	1
1286	692	*	1
1157	384	5.80e-65/254aa/27.14%	1
507	693	*	1
1215	694	*	1
171	596	5.01e-18/239:113aa/26.46%	1
691	695	*	1
788	696	*	1
1012	697	*	1
1078	698	*	1
1389	579	4.86e-19/84:206aa/21.07%	1
1459	637	8.78e-56/431aa/32.55%	1
721	699	*	1
1510	700	*	1
707	529	6.08e-50/242:111aa/36.7%	1
726	701	*	1
44	638	8.15e-69/331aa/30.26%	1
604	601	8.34e-33/414aa/27.65%	1
673	490	1.08e-75/369aa/32.62%	1
1500	702	*	1
749	629	5.10e-81/262aa/31.51%	1
476	438	2.04e-51/337aa/28.26%	1
202	703	*	1
481	704	*	1
577	705	*	1
1300	706	*	1
71	601	1.80e-30/410aa/26.55%	1
804	601	1.09e-38/369aa/22.72%	1
116	695	2.41e-27/429aa/26.85%	1
239	707	*	1
338	708	*	1
55	438	2.52e-55/384aa/28.67%	1
558	162	4.62e-48/288aa/25.54%	1
1511	601	7.81e-27/398aa/25.3%	1
946	709	*	1
1015	710	*	1
1367	711	*	1
1380	712	*	1
1483	713	*	1
1496	714	*	1
770	680	1.16e-17/126:98aa/21.3%	1
937	625	1.72e-59/194aa/29.05%	1
827	712	2.06e-156/411aa/54.85%	1
989	715	*	1
1054	716	*	1
1213	438	1.34e-63/336aa/30.58%	1
10	429	4.38e-64/406aa/34.06%	1
64	717	*	1
488	718	*	1
535	657	9.46e-154/347aa/55.23%	1
1278	694	3.39e-124/387aa/47.68%	1
1530	719	*	1
586	638	8.30e-54/375aa/30.73%	1
615	392	1.51e-42/291aa/24.14%	1
1108	720	*	1
1468	601	2.59e-24/396aa/26.34%	1
1150	721	*	1
1259	722	*	1
123	723	*	1
174	293	3.74e-40/253aa/22.9%	1
766	0	1.37e-35/282aa/20.44%	1
886	319	1.17e-22/273aa/17.98%	1
1040	715	3.05e-107/391aa/41.37%	1
93	601	1.23e-25/373aa/23.7%	1
897	724	*	1
867	725	*	1
1245	726	*	1
73	292	1.30e-21/376aa/24.81%	1
124	727	*	1
489	728	*	1
614	601	1.45e-23/381aa/25.37%	1
179	729	*	1
1361	730	*	1
594	731	*	1
1037	732	*	1
1218	733	*	1
1272	106	4.05e-23/223aa/16%	1
632	734	*	1
954	735	*	1
127	578	2.62e-77/204aa/29.39%	1
603	736	*	1
715	737	*	1
39	738	*	1
167	739	*	1
221	657	1.17e-137/349aa/51.51%	1
233	740	*	1
620	693	6.85e-42/391aa/30.55%	1
1175	735	0.0/358aa/61.11%	1
1356	392	1.18e-13/257aa/16.41%	1
629	741	*	1
747	742	*	1
976	743	*	1
324	744	*	1
665	745	*	1
854	746	*	1
353	417	4.92e-85/262aa/33.33%	1
689	245	6.07e-23/217aa/17.04%	1
136	747	*	1
584	748	*	1
898	749	*	1
1410	475	6.03e-18/246aa/16.58%	1
153	629	6.86e-71/259aa/32.99%	1
238	750	*	1
1058	751	*	1
1100	110	4.98e-25/235aa/16.62%	1
341	752	*	1
1005	678	1.69e-24/329aa/23.84%	1
1059	753	*	1
575	754	*	1
144	755	*	1
813	756	*	1
208	757	*	1
1013	758	*	1
1294	759	*	1
133	760	*	1
1140	761	*	1
169	0	8.23e-29/250aa/18.84%	1
278	762	*	1
195	763	*	1
199	764	*	1
748	765	*	1
13	766	*	1
1092	767	*	1
459	768	*	1
723	769	*	1
1295	770	*	1
583	768	0.0/377aa/98.13%	1
18	768	0.0/374aa/93.33%	1
190	771	*	1
209	768	0.0/374aa/93.33%	1
1287	772	*	1
1535	712	2.28e-21/387aa/24.53%	1
166	681	3.57e-12/294aa/18.98%	1
441	773	*	1
830	774	*	1
1338	744	2.52e-150/395aa/61.76%	1
801	775	*	1
1187	776	*	1
1455	777	*	1
808	778	*	1
546	779	*	1
201	780	*	1
17	733	5.76e-10/288aa/15.71%	1
566	153	1.39e-26/283aa/20.43%	1
1445	781	*	1
855	681	3.98e-18/292aa/20.49%	1
1254	782	*	1
316	634	1.01e-20/283aa/22.19%	1
329	783	*	1
403	784	*	1
853	785	*	1
81	786	*	1
84	681	3.66e-10/320aa/21.48%	1
292	787	*	1
1070	788	*	1
690	789	*	1
839	790	*	1
971	703	2.82e-63/412aa/37.77%	1
1223	791	*	1
331	745	7.60e-88/380aa/42.33%	1
727	745	1.02e-86/381aa/42.89%	1
970	747	5.68e-50/330aa/31.47%	1
1291	792	*	1
242	793	*	1
405	794	*	1
437	795	*	1
429	796	*	1
862	797	*	1
877	745	7.04e-88/381aa/43.5%	1
981	798	*	1
1128	745	4.77e-89/391aa/46.32%	1
1168	799	*	1
393	681	1.54e-12/330aa/22.44%	1
888	800	*	1
688	801	*	1
724	402	4.73e-64/301aa/32.76%	1
1260	802	*	1
426	803	*	1
895	804	*	1
1084	745	2.47e-85/376aa/42.57%	1
1155	805	*	1
900	802	0.0/347aa/71.34%	1
1368	806	*	1
311	681	3.73e-11/307aa/18.96%	1
580	807	*	1
597	808	*	1
756	809	*	1
848	810	*	1
1417	693	1.06e-30/349aa/28.53%	1
404	811	*	1
460	812	*	1
1172	813	*	1
1315	814	*	1
114	581	9.74e-33/269aa/21.44%	1
1216	475	6.60e-21/263aa/21.15%	1
1396	815	*	1
1009	816	*	1
117	807	1.52e-57/294aa/32.25%	1
372	817	*	1
514	818	*	1
901	392	2.29e-21/213aa/19.41%	1
435	819	*	1
641	820	*	1
1001	821	*	1
1516	822	*	1
653	823	*	1
1036	824	*	1
1436	825	*	1
1268	826	*	1
1494	827	*	1
610	828	*	1
1066	829	*	1
1123	830	*	1
1485	831	*	1
852	832	*	1
1088	833	*	1
1098	834	*	1
1219	835	*	1
795	836	*	1
728	837	*	1
975	619	1.78e-47/304aa/32.21%	1
140	645	2.36e-11/303aa/20.73%	1
647	838	*	1
1173	779	1.72e-21/265aa/20.42%	1
1399	839	*	1
631	737	2.18e-35/208aa/22.01%	1
870	840	*	1
1460	841	*	1
310	842	*	1
786	110	3.77e-57/324aa/37.11%	1
1382	843	*	1
494	844	*	1
1121	845	*	1
1158	846	*	1
1164	825	7.65e-20/298aa/23.07%	1
606	842	2.01e-35/108:63aa/35.49%	1
1331	847	*	1
1524	843	7.64e-143/317aa/57.27%	1
1544	848	*	1
1120	849	*	1
1212	850	*	1
282	851	*	1
1340	852	*	1
1366	852	0.0/318aa/84.63%	1
869	853	*	1
232	277	1.68e-29/193aa/23.65%	1
373	854	*	1
469	855	*	1
850	588	9.23e-31/81aa/16.08%	1
1403	856	*	1
487	848	2.72e-79/292aa/46.49%	1
492	857	*	1
595	719	5.39e-29/64aa/15.28%	1
1518	347	1.36e-35/272aa/27.38%	1
413	858	*	1
491	859	*	1
682	860	*	1
1209	861	*	1
1451	798	1.58e-39/247aa/28.2%	1
701	862	*	1
944	863	*	1
220	864	*	1
912	865	*	1
450	866	*	1
158	867	*	1
794	801	1.36e-23/223aa/22.62%	1
832	110	8.08e-53/305aa/37.95%	1
1348	868	*	1
349	869	*	1
486	870	*	1
834	871	*	1
1527	872	*	1
110	873	*	1
1472	874	*	1
1030	875	*	1
1274	876	*	1
1192	877	*	1
1466	878	*	1
1051	879	*	1
560	880	*	1
1167	881	*	1
77	882	*	1
146	883	*	1
1195	884	*	1
1003	885	*	1
1354	886	*	1
1370	887	*	1
194	798	1.31e-41/255aa/28.27%	1
392	888	*	1
802	347	4.84e-23/178aa/20.68%	1
477	889	*	1
678	890	*	1
1322	891	*	1
1514	892	*	1
88	893	*	1
35	894	*	1
1543	895	*	1
836	896	*	1
952	895	3.23e-119/284aa/90.84%	1
1491	754	2.57e-65/173aa/37.32%	1
617	889	1.08e-17/226aa/22.61%	1
769	754	1.60e-14/143aa/16.25%	1
1222	762	3.67e-63/245aa/36.74%	1
1441	729	3.87e-15/160aa/17.31%	1
24	897	*	1
285	7	3.86e-14/135aa/17.02%	1
1177	867	7.43e-81/263aa/42.19%	1
1028	898	*	1
301	899	*	1
493	855	1.26e-39/198aa/23.38%	1
156	469	1.06e-14/169aa/20.57%	1
184	714	3.62e-08/274aa/24.54%	1
424	900	*	1
654	901	*	1
974	902	*	1
1258	469	4.61e-35/164aa/23.82%	1
1076	903	*	1
1471	904	*	1
696	905	*	1
216	906	*	1
322	907	*	1
176	908	*	1
650	909	*	1
773	839	8.11e-07/173aa/15.01%	1
47	910	*	1
57	911	*	1
1049	771	2.17e-27/228aa/26.93%	1
1237	816	3.95e-17/205aa/25.46%	1
519	816	2.54e-08/217aa/21.93%	1
613	319	1.10e-40/264aa/37.31%	1
46	912	*	1
402	319	8.24e-29/237aa/30.71%	1
1415	913	*	1
255	914	*	1
1035	871	1.06e-65/172aa/32.33%	1
542	816	1.78e-10/210aa/20.37%	1
1401	915	*	1
765	319	1.21e-36/252aa/36.64%	1
1053	916	*	1
428	917	*	1
495	918	*	1
826	914	3.12e-17/263aa/27.96%	1
881	798	2.87e-49/263aa/36.39%	1
906	919	*	1
1437	920	*	1
80	798	2.39e-46/264aa/35.76%	1
957	198	3.10e-14/156aa/16.53%	1
1452	921	*	1
333	922	*	1
1152	807	2.69e-14/200aa/20.15%	1
177	642	2.93e-39/226aa/33.85%	1
598	923	*	1
107	924	*	1
740	729	1.73e-09/161aa/16.86%	1
43	925	*	1
664	926	*	1
734	863	6.53e-53/167aa/32.67%	1
994	927	*	1
1546	928	*	1
652	319	2.75e-34/237aa/33.59%	1
807	929	*	1
1277	930	*	1
1498	931	*	1
562	932	*	1
986	933	*	1
1135	934	*	1
1238	935	*	1
1332	936	*	1
778	937	*	1
880	771	6.87e-38/223aa/39.11%	1
905	319	3.21e-44/240aa/40.48%	1
1379	938	*	1
1426	939	*	1
497	940	*	1
930	941	*	1
16	942	*	1
431	943	*	1
1008	416	1.37e-31/127aa/24.18%	1
390	944	*	1
1127	945	*	1
1433	416	1.39e-24/132aa/21.81%	1
544	946	*	1
716	938	6.32e-41/249aa/36.09%	1
350	906	8.81e-21/178aa/25.83%	1
1493	947	*	1
9	948	*	1
1520	949	*	1
750	950	*	1
656	951	*	1
1131	952	*	1
744	953	*	1
1369	954	*	1
1062	955	*	1
42	956	*	1
1018	957	*	1
247	958	*	1
135	762	5.18e-64/235aa/46.46%	1
381	959	*	1
1372	48	1.96e-23/153aa/22.32%	1
579	960	*	1
1042	961	*	1
1404	962	*	1
173	957	1.66e-35/176aa/27.14%	1
1091	963	*	1
720	957	2.60e-25/202aa/26.02%	1
798	964	*	1
1074	965	*	1
1327	966	*	1
991	20	3.54e-53/160aa/40.74%	1
612	958	2.77e-12/139aa/18.6%	1
1523	965	1.63e-45/197aa/46.04%	1
49	967	*	1
462	968	*	1
471	969	*	1
781	970	*	1
800	957	1.70e-47/167aa/36.61%	1
1146	971	*	1
1323	972	*	1
1343	950	6.60e-23/122aa/23.58%	1
290	973	*	1
551	974	*	1
589	975	*	1
706	938	2.39e-40/172aa/38.09%	1
988	976	*	1
1243	977	*	1
1251	978	*	1
1346	979	*	1
231	980	*	1
591	981	*	1
1016	932	1.18e-13/114aa/17.78%	1
1282	953	3.27e-19/134aa/21.63%	1
418	957	1.37e-32/180aa/32.85%	1
2	957	1.21e-41/184aa/35.43%	1
185	982	*	1
365	983	*	1
367	984	*	1
545	985	*	1
557	973	6.44e-76/184aa/50.73%	1
1069	588	9.56e-24/75aa/19.11%	1
775	986	*	1
791	987	*	1
821	988	*	1
934	989	*	1
33	842	1.97e-21/64aa/19.69%	1
998	990	*	1
14	991	*	1
320	992	*	1
882	973	9.69e-43/187aa/38.26%	1
1299	993	*	1
679	994	*	1
762	995	*	1
1313	996	*	1
222	997	*	1
444	998	*	1
1147	999	*	1
1289	1000	*	1
277	957	2.44e-15/162aa/23.43%	1
1512	1001	*	1
207	957	5.13e-14/123aa/19.37%	1
686	957	2.00e-24/164aa/29.1%	1
1129	957	2.05e-27/184aa/32.8%	1
1302	957	9.90e-24/168aa/28.57%	1
1317	1002	*	1
505	1003	*	1
461	1004	*	1
61	1005	*	1
559	719	3.40e-17/73aa/17.83%	1
547	1006	*	1
1207	1007	*	1
434	1008	*	1
1481	1009	*	1
340	1010	*	1
139	1011	*	1
439	1012	*	1
563	973	2.82e-33/173aa/33.14%	1
940	1013	*	1
1438	982	3.50e-08/85aa/21.46%	1
642	985	2.51e-36/171aa/43.42%	1
1304	1014	*	1
501	973	1.92e-27/183aa/34.48%	1
738	973	3.52e-32/175aa/34.48%	1
470	985	1.37e-34/169aa/39.3%	1
1071	1015	*	1
543	1016	*	1
1462	1017	*	1
805	1018	*	1
1536	1019	*	1
1	1020	*	1
26	990	7.37e-17/70aa/17.68%	1
636	1021	*	1
915	1022	*	1
423	1023	*	1
447	1024	*	1
1154	1025	*	1
1107	999	4.20e-11/110aa/18.63%	1
806	1026	*	1
236	1027	*	1
1453	1028	*	1
99	1029	*	1
764	1030	*	1
831	906	3.57e-42/146aa/47.4%	1
79	992	5.71e-32/147aa/33.55%	1
479	1031	*	1
1162	985	2.64e-18/82aa/22%	1
147	1032	*	1
21	1033	*	1
67	1033	1.11e-83/147aa/72.78%	1
284	1033	6.58e-83/147aa/72.1%	1
533	1034	*	1
924	1035	*	1
1285	1033	4.43e-103/147aa/92.51%	1
618	1036	*	1
960	1037	*	1
8	1038	*	1
103	1039	*	1
1210	1040	*	1
628	1033	4.27e-36/145aa/43.66%	1
1204	1030	2.19e-45/135aa/41.54%	1
599	1041	*	1
1023	1042	*	1
257	1043	*	1
902	1044	*	1
1132	1045	*	1
215	1046	*	1
235	1047	*	1
552	1048	*	1
683	1049	*	1
105	1050	*	1
1330	158	6.37e-17/96aa/31.25%	1
637	1051	*	1
286	1049	2.73e-13/51aa/17.88%	1
1373	1052	*	1
160	1053	*	1
346	1054	*	1
52	1055	*	1
1083	1056	*	1
414	1057	*	1
433	996	1.17e-09/82aa/26.36%	1
695	1058	*	1
206	1059	*	1
1360	1060	*	1
101	1061	*	1
964	1062	*	1
735	1063	*	1
1276	1064	*	1
1244	1065	*	1
948	1066	*	1
1138	1067	*	1
330	1068	*	1
4	1069	*	1
293	1070	*	1
990	209	1.50e-07/41aa/27.84%	1
1463	1071	*	1
259	1072	*	1
1021	1073	*	1
651	1074	*	1
1220	1075	*	1
